Generated by pymatgen.io.lammps.data.LammpsData

36  atoms

 1  atom types

0.000000 3.189320  xlo xhi
0.000000 7.578247  ylo yhi
0.000000 34.035020  zlo zhi

Masses

1  24.305

Atoms

1   1  1.594660 1.559004  0.315139
2   1  1.594659 6.019243 33.719881
3   1 -0.000001 7.123906  2.205974
4   1 -0.000000 4.005897  1.575695
5   1  1.594659 5.110560  4.096808
6   1  1.594660 1.992551  3.466530
7   1 -0.000000 3.097214  5.987643
8   1 -0.000001 7.557453  5.357364
9   1  1.594660 1.083868  7.878477
10  1  1.594659 5.544107  7.248199
11  1 -0.000001 6.648769  9.769311
12  1 -0.000000 3.530761  9.139033
13  1  1.594659 4.635423 11.660146
14  1  1.594660 1.517415 11.029867
15  1 -0.000000 2.622077 13.550980
16  1 -0.000001 7.082316 12.920702
17  1  1.594660 0.608732 15.441814
18  1  1.594659 5.068971 14.811536
19  1 -0.000001 6.173633 16.702371
20  1 -0.000000 3.055625 17.332649
21  1  1.594660 0.608732 18.593205
22  1  1.594659 5.068971 19.223484
23  1 -0.000000 2.622077 20.484040
24  1 -0.000001 7.082316 21.114318
25  1  1.594659 4.635423 22.374874
26  1  1.594660 1.517415 23.005152
27  1 -0.000001 6.648769 24.265709
28  1 -0.000000 3.530761 24.895987
29  1  1.594660 1.083868 26.156543
30  1  1.594659 5.544107 26.786821
31  1 -0.000000 3.097214 28.047377
32  1 -0.000001 7.557453 28.677655
33  1  1.594659 5.110560 29.938212
34  1  1.594660 1.992551 30.568490
35  1 -0.000001 7.123906 31.829046
36  1 -0.000000 4.005897 32.459324

